REMARK SMILES O=C(NC1(c2ccc(Cl)cc2)COC1)c1ccc(N2CC[C@H](O)C2)cc1
REMARK SMILES IDX 15 1 16 2 17 3 18 4 25 5 26 6 2 7 3 8 1 9 4 11 12 12 14 13
REMARK SMILES IDX 13 14 5 15 6 16 11 17 7 18 10 19 8 20 9 21 19 22 20 23 24 24
REMARK SMILES IDX 21 25 22 26 23 27
REMARK H PARENT 3 10 23 28
ROOT
ATOM      1  C   UNL     1       0.076  -0.620  -0.160  1.00  0.00     0.039 A 
ATOM      2  C   UNL     1       0.835  -0.382   0.998  1.00  0.00     0.016 A 
ATOM      3  C   UNL     1       2.213  -0.168   0.913  1.00  0.00     0.027 A 
ATOM      4  C   UNL     1       2.870  -0.191  -0.332  1.00  0.00     0.037 A 
ATOM      5  C   UNL     1       2.108  -0.441  -1.488  1.00  0.00     0.027 A 
ATOM      6  C   UNL     1       0.730  -0.656  -1.402  1.00  0.00     0.016 A 
ENDROOT
BRANCH   1   7
ATOM      7  C   UNL     1      -1.386  -0.854  -0.083  1.00  0.00     0.252 C 
ATOM      8  N   UNL     1      -2.162  -0.347   1.017  1.00  0.00    -0.338 N 
ATOM      9  O   UNL     1      -1.956  -1.499  -1.005  1.00  0.00    -0.269 OA
ATOM     10  H   UNL     1      -1.738   0.385   1.630  1.00  0.00     0.164 HD
BRANCH   8  11
ATOM     11  C   UNL     1      -3.597  -0.615   1.169  1.00  0.00     0.112 C 
ATOM     12  C   UNL     1      -4.043  -0.562   2.625  1.00  0.00     0.196 C 
ATOM     13  C   UNL     1      -3.927  -2.094   1.328  1.00  0.00     0.196 C 
ATOM     14  O   UNL     1      -4.298  -1.943   2.676  1.00  0.00    -0.376 OA
BRANCH  11  15
ATOM     15  C   UNL     1      -4.452   0.200   0.214  1.00  0.00    -0.018 A 
ATOM     16  C   UNL     1      -4.888  -0.333  -1.014  1.00  0.00     0.008 A 
ATOM     17  C   UNL     1      -4.712   1.554   0.495  1.00  0.00     0.008 A 
ATOM     18  C   UNL     1      -5.621   0.455  -1.908  1.00  0.00     0.021 A 
ATOM     19  C   UNL     1      -5.445   2.338  -0.400  1.00  0.00     0.021 A 
ATOM     20  C   UNL     1      -5.905   1.788  -1.600  1.00  0.00     0.041 A 
ATOM     21  Cl  UNL     1      -6.820   2.774  -2.725  1.00  0.00    -0.084 Cl
ENDBRANCH  11  15
ENDBRANCH   8  11
ENDBRANCH   1   7
BRANCH   4  22
ATOM     22  N   UNL     1       4.297   0.032  -0.420  1.00  0.00    -0.369 N 
ATOM     23  C   UNL     1       5.077  -0.154  -1.636  1.00  0.00     0.119 C 
ATOM     24  C   UNL     1       5.123   0.469   0.697  1.00  0.00     0.148 C 
ATOM     25  C   UNL     1       6.533   0.015  -1.228  1.00  0.00     0.055 C 
ATOM     26  C   UNL     1       6.500   0.761   0.103  1.00  0.00     0.135 C 
BRANCH  26  27
ATOM     27  O   UNL     1       7.527   0.315   0.948  1.00  0.00    -0.391 OA
ATOM     28  H   UNL     1       7.558   0.949   1.711  1.00  0.00     0.211 HD
ENDBRANCH  26  27
ENDBRANCH   4  22
TORSDOF 5
