REMARK SMILES CN1C(=O)[C@H](c2c(-c3ccc(Cl)cc3)[nH]c3c2c(=O)[nH]c(=O)n3C)c2ccccc21
REMARK SMILES IDX 6 1 7 2 15 3 16 4 17 5 18 6 19 7 20 8 21 9 22 10 23 11 24 12
REMARK SMILES IDX 5 15 2 16 3 17 30 18 29 19 25 20 28 21 26 22 27 23 1 24 4 25
REMARK SMILES IDX 8 26 9 27 14 28 10 29 13 30 11 31 12 32
REMARK H PARENT 15 13 20 14
ROOT
ATOM      1  C   UNL     1      -0.148  -1.224  -0.057  1.00  0.00     0.010 A 
ATOM      2  C   UNL     1       1.014  -0.435  -0.035  1.00  0.00     0.052 A 
ATOM      3  N   UNL     1       2.122  -1.204  -0.128  1.00  0.00    -0.340 N 
ATOM      4  C   UNL     1       1.684  -2.476  -0.177  1.00  0.00     0.127 A 
ATOM      5  C   UNL     1       0.318  -2.531  -0.126  1.00  0.00     0.087 A 
ATOM      6  C   UNL     1      -0.319  -3.768  -0.137  1.00  0.00     0.263 A 
ATOM      7  O   UNL     1      -1.573  -3.864  -0.070  1.00  0.00    -0.269 OA
ATOM      8  N   UNL     1       0.453  -4.891  -0.212  1.00  0.00    -0.273 N 
ATOM      9  C   UNL     1       1.821  -4.819  -0.269  1.00  0.00     0.329 A 
ATOM     10  O   UNL     1       2.487  -5.889  -0.333  1.00  0.00    -0.248 OA
ATOM     11  N   UNL     1       2.459  -3.598  -0.253  1.00  0.00    -0.282 N 
ATOM     12  C   UNL     1       3.923  -3.480  -0.302  1.00  0.00     0.157 C 
ATOM     13  H   UNL     1       3.111  -0.869  -0.136  1.00  0.00     0.168 HD
ATOM     14  H   UNL     1      -0.011  -5.828  -0.222  1.00  0.00     0.175 HD
ENDROOT
BRANCH   1  15
ATOM     15  C   UNL     1      -1.597  -0.781  -0.016  1.00  0.00     0.144 C 
ATOM     16  N   UNL     1      -2.540   0.930   1.446  1.00  0.00    -0.314 N 
ATOM     17  C   UNL     1      -2.028  -0.401   1.371  1.00  0.00     0.238 C 
ATOM     18  C   UNL     1      -2.368   1.458   0.137  1.00  0.00     0.048 A 
ATOM     19  C   UNL     1      -2.620   2.767  -0.281  1.00  0.00     0.026 A 
ATOM     20  C   UNL     1      -1.846   0.516  -0.729  1.00  0.00    -0.007 A 
ATOM     21  C   UNL     1      -2.354   3.103  -1.618  1.00  0.00     0.002 A 
ATOM     22  C   UNL     1      -1.590   0.829  -2.066  1.00  0.00     0.007 A 
ATOM     23  C   UNL     1      -1.846   2.137  -2.508  1.00  0.00     0.000 A 
ATOM     24  C   UNL     1      -2.759   1.695   2.668  1.00  0.00     0.153 C 
ATOM     25  O   UNL     1      -1.957  -1.168   2.368  1.00  0.00    -0.273 OA
ENDBRANCH   1  15
BRANCH   2  26
ATOM     26  C   UNL     1       1.079   1.030   0.072  1.00  0.00    -0.002 A 
ATOM     27  C   UNL     1       0.710   1.671   1.263  1.00  0.00     0.012 A 
ATOM     28  C   UNL     1       1.513   1.793  -1.021  1.00  0.00     0.012 A 
ATOM     29  C   UNL     1       0.732   3.066   1.344  1.00  0.00     0.021 A 
ATOM     30  C   UNL     1       1.532   3.188  -0.939  1.00  0.00     0.021 A 
ATOM     31  C   UNL     1       1.135   3.826   0.241  1.00  0.00     0.041 A 
ATOM     32  Cl  UNL     1       1.143   5.577   0.338  1.00  0.00    -0.084 Cl
ENDBRANCH   2  26
TORSDOF 2
